4000
Atom. Timestep: 1
N 41.817500 22.073600 48.112500
N 18.776500 40.525800 23.226000
N 21.493700 31.352000 19.041200
N 15.920400 27.170700 13.987100
O 4.010510 3.802610 35.427600
N 12.127700 10.070600 17.928700
O 34.922200 12.608500 49.468500
N 16.661200 41.434800 6.662390
N 31.167000 50.861800 4.180280
O 51.056100 33.774100 43.242200
N 45.443100 11.613900 10.363200
N 39.950100 24.602700 38.602200
O 41.677600 7.699880 29.289400
O 33.868400 18.952600 6.247680
O 3.602350 26.596100 9.140010
N 8.453680 50.352100 46.488300
N 39.674800 17.107000 31.547900
N 24.113100 25.741200 29.603200
N 10.342500 12.134700 21.684400
N 25.037600 19.241900 12.951300
O 17.518700 16.633700 3.210460
N 17.881400 24.214600 16.709100
N 9.578450 20.744800 26.345200
N 18.895800 8.022500 33.125700
N 25.865500 4.752350 31.757200
O 36.765900 36.171000 48.116100
N 35.251100 20.085000 4.146560
N 1.410790 6.575210 34.200800
N 43.382600 23.260000 50.052500
O 4.378520 42.260600 17.140500
N 25.737500 19.918700 33.979700
N 34.232600 10.819100 14.387200
N 37.349000 31.077700 18.052600
N 14.811800 21.515800 38.871500
O 29.562500 35.535600 19.139500
N 5.443590 49.189400 12.869900
O 3.310300 20.779400 19.208600
O 50.421900 9.827140 26.299200
N 18.741500 40.304700 33.799600
O 4.465580 24.200200 50.383500
N 44.573600 50.522900 10.793500
N 16.870600 18.453600 41.255900
N 37.619400 51.164800 50.133200
O 31.878100 27.768800 3.494320
N 39.509400 10.424800 43.239000
N 37.192600 35.589100 18.082900
N 1.539540 28.218200 43.001300
O 50.093200 48.489000 21.960500
N 22.555400 7.832320 25.266500
N 17.702000 3.675550 33.386900
O 47.979800 49.210800 26.898500
O 0.694691 24.598000 22.456900
O 31.195100 9.650760 3.142410
N 20.462700 49.704500 8.976750
O 46.423600 21.407200 35.411400
N 48.808300 44.868100 47.453600
O 28.286800 4.298540 34.838900
N 25.888500 30.467300 20.070400
O 46.431800 48.511000 34.263600
N 25.515000 13.688900 22.296800
O 15.574600 49.803200 22.522900
N 47.857400 5.280600 39.279100
N 9.370680 42.804600 35.840900
N 9.608600 11.791200 45.927900
O 46.561300 24.209600 22.058700
N 21.885400 9.825790 27.098400
O 0.365699 50.812500 47.889500
O 1.359980 10.823300 42.732100
N 20.577700 11.681000 13.089700
N 42.705800 47.226000 41.622500
N 39.402000 21.231800 32.811700
N 20.840100 34.184100 11.994800
O 32.452600 42.179600 11.553500
O 2.784720 49.149900 25.264500
O 23.479800 5.172820 25.574500
O 33.422100 33.340200 1.571790
N 29.650800 45.584800 38.429100
O 33.853700 10.435600 2.887800
O 43.806100 4.241510 46.500500
N 13.535000 20.462000 23.853100
N 5.320490 1.020940 38.353400
N 35.709200 45.164600 16.258900
O 28.310400 37.628500 32.788400
O 7.216800 10.439500 45.626400
N 29.838000 48.790800 27.921400
O 49.530200 27.603000 49.785800
O 2.177400 23.708100 15.912300
O 26.260900 36.820500 2.904850
N 32.704100 11.384700 33.438400
N 1.272590 25.272300 29.474100
O 2.391270 42.511100 10.963700
N 45.606300 14.439300 18.947900
O 4.101440 38.399300 3.218340
N 23.290800 36.656700 50.007400
O 47.431200 36.754400 20.888200
O 8.047360 50.492500 9.234000
N 13.714300 7.948470 47.685300
N 27.386000 19.952600 9.400130
N 17.768700 15.962300 40.391000
N 9.646340 39.296800 6.364140
N 6.244220 30.582100 21.495300
N 5.323230 11.007700 25.711300
N 31.128500 11.839000 44.384200
N 36.599300 47.240700 42.258500
O 46.310600 17.170900 1.444770
N 45.759400 32.151800 13.749500
N 23.972300 46.019300 18.049800
O 2.100600 27.318000 25.528100
N 33.217700 28.411100 24.712300
O 44.448300 0.003794 28.132900
N 38.973500 24.127000 1.488650
N 24.009000 26.641500 25.171300
O 33.803500 48.577900 7.528380
N 5.938820 49.578800 38.005200
O 1.842510 44.622800 47.923700
N 0.802866 23.649400 27.244900
N 49.784400 32.757300 14.629800
O 18.459800 19.161300 3.823170
N 8.663530 13.742800 10.492800
N 33.179100 45.221800 31.704200
N 5.213280 20.131000 21.103800
N 0.232870 24.202900 38.443300
N 14.283600 15.206000 50.818100
O 2.613870 45.508500 19.629000
N 8.288290 40.711600 23.078700
N 6.993580 27.496400 45.560800
N 22.638200 24.033800 36.375800
N 23.405200 43.948900 14.252700
N 32.307700 26.078400 19.985200
O 0.233666 34.685100 19.992500
O 0.309794 45.728100 13.672600
N 45.883800 40.709200 30.147200
N 29.882900 25.674300 18.618300
O 12.217100 2.833090 15.495000
N 31.201100 19.567000 31.554400
N 45.970500 3.887880 7.253090
O 46.194400 21.380900 43.794900
N 18.354500 42.058900 18.774000
N 35.537500 14.471700 12.160300
O 21.076500 40.261700 48.132200
N 7.025760 15.728200 14.579700
N 5.201190 0.684992 21.226600
O 41.847700 31.853100 15.376700
O 2.208790 10.375100 4.172060
O 48.793100 46.884200 37.728500
O 49.981700 45.441500 9.379220
O 45.289700 49.584000 30.232000
N 33.733000 24.737200 18.086300
O 0.274005 25.152400 41.043100
N 21.411800 44.234400 12.409500
N 32.643300 19.100100 27.156600
N 23.630500 36.348900 3.603580
O 13.071100 22.988000 3.109140
O 30.940800 31.991000 5.057240
N 18.859300 11.902900 38.211500
O 1.173780 42.066500 22.574300
N 20.943600 18.651100 13.651400
O 27.702500 19.750000 45.972000
N 23.555800 20.119000 17.196000
N 43.007400 42.228500 20.301300
O 11.448900 49.893600 15.129200
O 20.677900 0.958099 10.110500
O 6.009210 47.808200 40.202000
N 13.499300 7.493510 0.638510
N 18.166400 34.975400 12.037600
N 16.697300 33.036500 17.912800
O 49.299300 49.380000 47.512800
O 48.023000 39.383700 20.313100
N 18.895600 41.569900 10.050800
N 36.893900 40.985700 33.915400
N 14.853100 22.468700 14.734100
N 27.817100 15.655200 46.986200
N 35.010700 38.764200 25.284500
O 27.956100 50.627000 45.402600
O 33.041600 21.687400 4.305890
N 29.783100 11.436300 46.855000
N 11.347900 7.295770 8.433180
N 31.117800 42.250700 9.151170
N 21.079700 13.987500 8.261520
O 47.112900 46.841500 14.449800
O 27.317600 47.659500 25.115900
N 37.902700 34.895700 6.741230
O 38.077400 49.405800 28.590500
N 31.655100 9.767670 15.118300
O 23.972800 40.185200 41.593300
N 37.125900 35.394900 30.253700
O 49.922800 13.858100 11.176200
N 40.982500 26.648200 6.984830
O 12.965600 12.648000 3.483220
N 34.419400 38.276900 15.196000
N 33.156400 28.668200 8.612540
N 29.247500 30.599900 34.159400
N 31.841600 40.063300 33.215100
N 27.816000 38.633800 30.234800
O 6.230300 43.948400 4.229800
O 1.404510 3.736870 34.448200
N 13.159200 45.563200 24.693300
N 36.120000 6.913890 25.955800
O 35.576200 50.180000 48.517100
N 1.467110 9.107370 35.338000
N 39.306000 19.456600 34.925800
N 17.663000 16.403300 25.909900
O 39.335900 15.666300 0.419539
N 42.480600 43.819800 25.125300
O 4.933510 28.840300 8.141120
O 50.435300 9.244450 6.785650
N 40.920600 32.316700 40.109400
O 49.903300 12.617700 1.341120
N 11.354400 14.022500 25.542100
N 18.314900 8.237120 6.571770
N 15.317600 18.586000 45.760100
O 50.482300 21.856200 1.757330
O 33.693400 7.907140 18.228800
N 6.308450 44.391600 30.534400
O 7.925400 3.932390 47.678900
N 16.345400 31.021300 24.426200
N 35.425300 19.374400 33.441400
N 30.232800 13.344000 37.060300
N 21.133700 19.941700 11.180200
N 11.674900 17.052200 15.771700
N 35.330900 19.854500 43.989400
N 15.677500 45.859500 28.409300
O 1.356450 21.077400 15.762400
N 32.086400 36.350800 6.504870
O 15.574700 25.678200 48.927600
N 27.282200 42.288700 13.975700
O 49.039800 1.770950 23.353400
O 11.609800 50.212300 12.384100
N 26.421400 10.366300 24.692200
N 8.134010 5.145390 27.429900
N 22.998100 18.625800 43.544100
N 16.800300 31.880600 37.314100
N 49.538400 15.673700 43.796500
N 29.613100 10.617100 11.854800
O 0.962169 18.194400 0.049322
N 26.345400 8.179530 6.758380
N 13.236700 18.754900 14.276400
O 3.342270 11.915200 41.117400
O 25.698100 29.993600 3.321410
N 17.724200 36.037200 45.026200
N 5.178700 15.997500 27.572600
O 42.542300 44.882100 1.956420
N 34.210400 30.015100 13.743400
O 38.916900 6.878910 51.102400
O 0.875122 9.526450 46.656700
O 40.865200 45.661700 4.026890
N 14.402000 35.338300 29.328500
O 45.651400 7.386200 49.285700
O 42.055800 27.724200 46.354900
O 24.330500 1.186120 46.561200
N 38.672600 45.306700 33.360100
N 13.918900 5.522350 31.405800
N 34.420700 16.623800 20.863500
N 43.119500 32.550300 36.020600
O 24.135500 17.240900 45.659800
O 4.060170 45.867400 46.768900
O 45.112200 39.332800 42.492500
N 9.777240 0.041571 7.187880
O 44.440500 3.044120 17.978300
O 1.088200 47.577900 26.812400
N 7.132760 34.146200 14.467300
N 23.144400 21.762000 40.338300
O 46.966100 12.233000 5.171260
O 7.612150 46.806200 1.177920
N 27.214700 26.579900 34.499000
N 38.878800 15.608300 37.846900
N 16.570500 4.115930 15.998700
N 46.217100 9.743780 38.964000
N 20.937300 4.827930 16.766000
N 14.823800 32.544400 44.400400
N 6.457700 40.586200 12.962900
N 31.398200 49.698600 8.390690
N 8.873150 35.505400 49.505700
N 32.779500 2.094160 42.082900
O 2.316280 47.010900 33.211800
O 24.370400 10.354700 49.487700
N 32.344600 26.535300 11.889000
O 27.097000 49.352700 31.194300
O 13.204700 48.294100 3.233450
O 2.377570 1.167730 12.218000
N 15.813300 17.110200 8.283460
N 49.118000 31.870000 17.146700
N 26.558000 40.362100 44.295100
N 9.162550 38.564800 26.767000
N 5.883190 30.518400 16.444800
N 40.216600 33.469900 21.026000
N 35.406000 7.955250 48.504300
N 19.165700 12.102500 5.101610
O 40.202300 3.034990 37.257600
O 43.447400 22.383100 13.957300
N 44.265900 19.356900 10.660100
O 31.267800 50.414200 15.219500
O 19.410600 46.946000 33.573500
O 42.432000 50.815800 1.302250
N 27.316300 39.614300 34.434400
N 32.081400 5.314880 2.095190
N 49.701700 41.014300 7.202570
N 37.016400 8.860770 21.076700
N 5.602420 19.927500 15.082400
O 35.203300 12.368400 18.365600
N 14.098100 10.287100 38.815700
N 39.741500 23.574100 15.672700
O 3.492700 1.103630 42.407900
N 10.222500 40.492400 10.878100
N 11.802800 23.896600 18.569200
O 37.819300 42.360400 1.204480
O 50.623400 49.613200 27.718700
O 40.803400 1.395230 16.119600
N 7.103730 40.325300 6.202890
O 15.500600 20.588600 6.324660
N 20.021700 29.601800 17.449000
O 10.580800 29.926800 3.425370
N 30.364200 33.042600 44.229600
O 21.327400 4.299090 42.037000
O 16.119400 1.749190 5.202310
N 31.262200 13.787400 29.963000
O 6.179140 25.531500 0.902847
O 2.067090 32.743000 19.414100
N 15.898600 39.280300 8.230840
N 11.127200 16.494400 21.601600
N 16.245100 9.898210 25.095900
N 20.568100 37.540000 6.648810
N 33.448800 24.900300 13.879700
O 30.380500 48.902700 5.957040
N 12.186200 21.538200 37.825500
N 35.359300 10.169300 22.873800
O 36.841600 5.727690 4.792110
O 0.338706 36.469100 43.297100
N 40.582300 5.143230 35.537000
O 42.359200 6.504860 47.213100
O 1.962500 32.230800 28.607300
N 43.535700 48.055900 14.270200
O 1.902520 8.827340 38.054400
N 19.087000 1.588720 44.732800
N 10.687600 17.902300 10.205300
N 35.621600 18.405100 30.853000
O 43.021200 26.493300 32.323100
N 30.820100 9.975740 28.989300
N 37.497200 33.810900 12.495400
N 22.648400 23.997600 27.883300
N 16.723800 27.984600 40.022200
N 26.119400 43.243800 9.816900
N 11.861800 3.201970 8.806290
N 44.517000 36.480600 10.148300
N 34.596500 18.894100 25.102200
N 12.356800 7.097590 20.539200
N 47.079500 47.818800 50.946600
O 28.597900 16.968600 40.602500
N 5.074310 45.814800 28.439400
O 27.944900 42.346000 29.257600
O 48.728000 8.852760 16.835000
N 19.334600 41.748800 7.314300
O 11.308400 50.788000 29.152200
N 10.109800 14.416500 23.143000
O 25.095200 46.101000 43.089400
N 13.644300 39.565500 47.668500
O 19.937700 0.002502 32.224200
N 31.594100 25.334000 42.236500
N 4.757320 31.566300 8.719250
O 2.789740 46.959500 4.407520
N 46.881700 43.031500 2.273460
O 3.712900 10.245200 31.201600
N 46.171000 25.114700 29.453100
N 40.451100 25.561200 31.637400
N 8.788840 4.065360 21.251900
N 6.332240 49.633600 44.784400
N 7.164480 16.836200 34.054500
N 15.437500 50.646200 37.980100
N 20.499900 42.177900 46.277800
N 9.515860 21.146200 22.479700
N 25.646200 44.305600 41.043300
N 43.612700 33.773800 28.989200
O 24.597900 34.452000 18.379500
N 24.204400 9.257350 39.307900
O 3.049060 16.499200 8.214270
N 27.779900 39.342200 10.626000
N 11.279800 43.068000 11.377600
O 11.138800 15.455200 44.642100
N 41.491100 26.007300 42.596100
N 19.385200 14.628400 21.800300
N 9.238620 21.349600 12.368000
O 40.654600 50.636000 22.281600
O 30.830700 48.773900 30.503000
O 45.598800 49.485300 22.312500
O 0.803347 5.001810 6.863610
N 13.516900 39.913600 13.704300
N 45.162100 21.608600 11.933000
O 16.216900 2.224520 19.904600
N 5.611330 45.366500 23.636100
O 40.816200 51.165200 4.642790
O 10.732300 42.696400 51.040200
O 7.552390 2.100130 39.577900
O 25.201000 38.540000 31.255300
N 22.692000 10.129100 31.446700
O 36.671200 1.421120 5.532420
N 29.319400 19.254200 15.626400
O 44.808000 50.650800 46.603800
N 13.653500 38.395900 26.020100
N 41.936000 6.108200 6.203220
N 42.606200 13.092600 40.699100
N 29.419100 31.675100 15.629900
N 34.248300 8.503160 6.743070
N 7.680600 19.504000 47.014000
N 12.500600 35.391300 41.426300
N 32.377600 49.312600 19.542300
O 2.699590 25.722600 42.297700
O 29.833800 3.944280 47.201100
N 28.101100 8.239360 40.121700
O 13.201100 43.247800 49.805400
N 46.301500 37.892000 11.760500
N 2.217990 21.112300 30.439400
N 15.825800 39.486700 30.271500
N 9.702470 30.864200 14.294800
N 34.643000 6.156530 42.133000
N 36.348300 9.618290 25.440200
N 23.488400 11.543800 40.709900
N 20.856200 8.949380 29.617200
O 25.987400 37.699900 19.310400
N 38.427800 43.002500 42.240000
N 42.591800 39.451600 14.422000
O 41.466300 1.642490 20.852400
N 40.576300 8.426990 18.429900
N 17.543400 21.876200 24.904200
O 42.258100 32.123600 48.653400
N 35.302400 17.187200 45.073500
N 50.012200 12.552200 13.602900
N 28.645800 46.406000 23.105800
O 26.456000 38.518500 27.734100
N 35.707000 17.078300 23.269300
N 41.058600 16.485600 27.320400
N 8.406320 34.826300 20.796300
N 24.504100 27.899400 45.769500
N 28.152900 45.502000 40.849700
O 34.205100 50.930300 12.778000
N 11.471100 21.683900 28.183300
N 38.069300 46.161000 3.807240
N 23.828900 28.535600 33.368100
O 19.766200 19.009500 51.126600
N 39.882200 8.855980 21.060700
N 41.308600 41.484200 28.690400
O 31.183700 3.631520 0.097331
O 2.202540 2.956420 10.085400
N 17.127300 5.843220 7.202480
N 0.384456 30.847500 18.046800
O 46.700300 20.672800 24.176800
N 38.068400 36.737500 38.707900
O 32.247700 0.891114 46.230200
O 15.626500 42.862100 34.344500
N 30.239700 0.096851 26.893400
N 33.800400 22.349500 30.107800
N 26.318800 47.125300 7.237180
O 14.849800 3.592600 23.157400
O 50.315300 28.969500 30.878400
N 34.822800 10.110800 41.974700
O 0.872740 30.537400 6.654280
N 41.544100 15.361300 41.902700
N 10.724600 45.753700 46.767100
N 46.600200 44.123400 26.260700
N 19.972400 26.052300 41.854100
N 46.300200 38.601300 35.265200
O 1.828880 33.696800 24.289200
N 12.981500 11.550100 22.337400
O 14.883400 1.951690 15.707900
N 12.019800 1.094900 33.160500
N 17.470700 13.403600 15.857200
N 33.651400 46.751900 11.663000
O 5.403190 20.193600 41.301700
N 45.792500 46.681400 7.119710
N 37.158200 19.131400 26.345400
N 38.799900 7.981700 42.195300
O 14.502200 32.025500 12.647600
N 34.431100 6.587480 12.899200
O 19.737700 43.537400 37.339700
N 13.721800 8.673980 27.964500
N 38.709200 4.873420 28.958100
N 23.432800 38.762900 14.355300
N 46.529600 32.895700 32.370000
O 16.509900 44.362000 38.143400
O 26.716100 17.116600 49.030500
O 6.507580 46.081400 8.997940
N 24.494100 24.534100 7.023600
O 17.656200 24.690500 11.096000
N 14.572900 39.328000 32.743000
O 12.951000 2.879520 35.106500
N 45.381900 7.691290 13.910300
N 36.708900 36.742100 26.241600
N 49.188900 32.284300 26.253100
N 44.074200 21.508700 24.008000
O 2.603790 4.203230 39.731800
O 21.778900 34.467200 32.854000
N 41.836000 5.995440 8.983000
N 44.746500 5.864040 5.711980
N 39.414500 30.734900 6.560710
N 9.107960 23.181000 34.732700
O 14.450000 38.832600 3.504070
O 32.071300 7.244930 42.048800
N 42.138000 33.023900 33.444700
N 13.084500 18.342600 11.526300
O 38.133700 39.405400 49.023000
O 8.786280 15.491600 2.181680
O 50.181000 22.285200 47.292400
N 30.730500 39.197000 27.070300
O 50.915200 30.397600 35.335400
N 14.838600 29.976600 10.791000
N 7.940090 43.748100 14.996100
N 45.072600 15.999500 32.260000
N 8.689010 36.809200 5.246220
N 18.463400 8.864690 16.000100
N 13.275500 28.316800 6.677610
N 6.539830 24.048800 23.435600
N 49.103500 26.574600 15.963500
O 46.945400 48.834300 37.051100
N 26.838500 32.208500 25.931400
N 24.809000 12.059000 35.377200
N 27.295200 25.648500 13.323600
N 5.538330 40.150900 22.811000
N 23.840900 37.676200 40.343400
O 31.395000 38.599200 47.383900
N 46.100300 29.317100 24.419100
O 22.885400 10.274400 20.200800
O 7.197380 4.724580 50.276300
N 44.294200 1.953130 10.120300
O 8.076740 1.910410 17.437300
N 38.026500 24.030500 28.510700
N 15.453300 4.613830 11.482500
N 13.716900 15.926900 20.651100
O 17.113900 44.864300 35.454300
N 27.301200 26.154700 10.611000
N 18.052000 0.134064 30.168600
O 46.532700 8.332500 28.788500
N 23.137700 33.502100 38.280000
O 46.771300 50.529500 32.430000
N 15.635000 14.577700 29.566400
N 30.466800 36.105300 4.238100
N 8.764870 22.787800 24.610000
N 32.002600 22.749500 41.241700
O 44.072000 34.604100 16.394600
O 4.153050 44.930000 8.094710
N 40.833100 39.494900 35.096900
N 18.626600 29.803000 8.410970
N 42.763900 11.503900 28.365700
N 9.256610 37.923600 43.283000
O 24.836900 34.452700 50.578000
N 38.415000 16.617500 26.503000
N 28.400500 2.324330 11.029000
N 20.443800 49.170700 13.401100
N 23.189800 33.943400 7.731430
N 18.203000 25.709300 27.834800
N 8.933020 38.188600 23.982900
O 41.826100 4.876140 40.966100
O 27.075400 14.138400 11.934200
N 33.402400 23.198500 6.655230
N 4.323400 28.532000 24.492700
O 9.500120 0.623281 38.198500
N 17.726400 22.832900 33.855800
O 43.842200 31.848300 46.330500
N 6.373400 43.893900 38.332600
O 14.239200 50.967300 8.761660
N 45.732200 44.834600 21.859400
N 4.642350 41.786900 35.260300
N 43.192600 45.545600 33.869300
O 3.066580 42.145700 48.641800
N 11.440300 36.346200 9.077230
N 23.990000 13.851900 26.264100
N 44.200300 21.110000 41.834300
N 20.303400 28.915800 23.154900
O 14.631700 20.506300 10.857800
N 8.912030 23.229100 48.929000
N 30.716600 41.782000 36.831500
N 37.469600 50.790700 1.674120
O 31.255000 25.108200 3.599970
O 41.009800 37.099700 4.658010
O 48.342500 7.814910 38.290300
O 14.838900 48.392400 29.187100
O 19.710800 49.286100 49.555000
N 7.267970 29.536000 14.240800
O 0.184523 44.135000 35.284000
N 38.742700 38.826100 8.773690
O 49.330500 15.987200 46.502700
O 39.362300 1.622340 45.956600
O 9.467020 47.501200 24.284300
O 22.665800 1.514310 49.990800
N 25.361500 45.225200 30.935200
O 29.794100 40.796100 47.984500
O 48.218500 30.252000 46.370700
N 7.364350 14.630600 42.792900
N 42.994300 33.108000 41.799300
N 30.640900 37.379500 23.578200
O 32.449600 7.892470 45.600900
N 39.998000 7.847020 35.172600
O 4.073580 5.923110 33.729800
O 34.598300 39.346000 10.749200
N 33.145400 42.128600 40.836900
O 17.948700 14.814800 47.325600
N 30.616000 36.478300 27.746400
O 3.850690 5.244810 10.286700
N 18.956500 35.995100 36.677000
N 42.672100 34.706900 11.341100
O 6.722810 36.969700 31.086900
N 32.814300 16.983400 4.464050
O 0.958978 6.068340 2.308280
N 10.115600 7.023950 30.874500
N 13.876900 11.394900 19.712600
O 19.532500 45.950300 2.730960
N 17.703300 10.352600 32.102700
O 42.731700 1.984340 29.007800
O 5.931570 2.783730 46.050200
O 45.783200 2.138060 2.867910
O 7.056530 2.920350 3.489140
O 33.712700 39.378300 46.049600
N 23.488000 31.383500 36.586100
N 45.839800 17.790500 38.906100
N 13.641100 24.601500 34.442500
O 2.687550 28.674200 33.610500
N 6.425100 19.181400 2.221330
O 41.487400 17.935200 40.949300
O 2.507900 20.999400 9.253180
N 8.597260 33.840400 41.181400
N 30.134900 30.032500 17.755800
N 14.588200 15.879300 23.242500
N 47.035700 43.062100 35.627900
N 12.672300 27.129000 42.340300
O 16.130600 6.971730 48.543300
N 25.034900 22.047800 13.284900
O 3.203750 37.582800 25.481200
O 8.647560 42.342100 38.497800
N 16.466800 8.490480 27.488800
N 10.693800 22.190800 16.665000
N 23.170600 37.628500 24.749200
N 7.286740 48.771000 25.430000
N 28.073200 21.596000 27.417800
O 1.097440 35.179700 1.611540
N 35.750100 28.809700 21.718500
N 18.056900 5.289430 37.055000
O 39.701200 50.348500 15.003000
O 27.309800 49.081500 3.408010
N 11.528700 15.500000 33.405100
O 49.807400 18.128900 49.812300
N 21.919000 43.119300 21.211300
O 3.076240 45.728700 1.908510
O 8.197350 17.459700 48.794600
N 24.164800 31.751200 18.315200
O 7.411190 8.401810 47.542100
N 21.399700 40.636900 22.308900
N 6.857020 32.725400 19.825500
O 12.604700 47.016900 50.710600
N 1.374990 36.201000 8.375290
N 20.861300 26.101900 27.267400
N 36.361000 45.918600 50.376300
O 4.104580 16.707500 45.390000
N 19.146400 19.925000 15.371700
O 33.227300 23.906600 39.092800
O 48.427100 7.660240 20.752300
N 16.633100 42.564600 16.595300
N 13.950900 31.072700 15.180400
O 0.668852 38.560700 13.454700
N 25.830900 33.418200 8.490770
N 44.273700 30.129100 36.805300
N 9.714330 18.419400 23.020500
N 43.820300 22.819200 7.990980
N 42.404100 26.625300 1.718100
N 17.356000 30.311200 17.829000
N 34.260700 24.169300 26.068600
O 4.681180 44.381700 21.131900
N 39.409100 26.299900 29.193900
N 35.748300 4.309330 19.665000
N 19.696800 18.449200 31.100300
N 16.855700 35.417500 25.141400
N 2.493000 3.864750 46.684700
O 43.324800 49.542200 36.437000
O 37.474500 0.454496 42.075400
O 1.240430 50.663600 42.816500
N 35.005300 14.035900 26.913200
O 49.572600 42.031000 35.108500
O 18.202700 40.883500 1.442120
N 41.276700 16.398200 9.275170
O 0.629154 20.500300 19.925000
N 9.838460 18.523500 30.688500
N 30.673200 44.394600 14.806000
N 29.431300 34.905200 29.803500
O 50.107500 36.435200 33.174700
O 3.974390 48.446400 45.661700
N 45.563800 29.349700 43.065800
O 1.620180 31.022800 2.314230
O 29.567800 1.188490 46.821800
O 27.978800 46.453500 0.467193
O 46.362500 30.517300 11.563200
O 50.246100 27.690000 3.529960
N 22.394700 11.185600 34.109100
O 11.300700 6.126140 50.829500
N 42.261200 44.771300 19.346800
N 27.418400 33.491400 6.165250
N 40.781900 5.874360 27.461000
O 38.549000 22.423000 37.532400
O 2.081670 30.864500 9.107610
O 20.598700 25.329200 48.695100
O 25.657600 23.986200 48.655600
O 3.562840 29.057100 12.399900
N 43.676000 16.673900 0.619564
N 27.226200 34.807000 24.944500
O 10.510500 13.312800 34.741200
N 37.573200 17.798600 41.025800
O 46.699600 16.471800 4.131590
O 27.290500 3.349000 19.643600
N 51.223500 8.022430 17.699500
O 11.999200 0.556762 51.162200
N 9.083670 17.528700 14.816800
O 38.197900 7.757770 48.542500
N 27.463500 31.239700 28.481300
O 3.512990 50.583500 2.444540
N 7.474170 28.284100 40.868900
O 1.388420 7.623780 7.573590
O 42.894500 47.435300 4.747800
N 44.433200 21.175200 19.717300
O 48.592800 7.586210 35.402900
N 10.576800 15.423800 6.568680
O 38.366700 50.414100 5.650160
O 44.679800 48.138200 38.398800
N 14.191200 27.496300 11.816000
O 9.290100 48.243400 15.676400
N 1.474620 31.187200 39.445500
O 21.891200 49.506400 31.013300
N 45.124600 42.086100 13.471200
O 34.919100 18.865500 0.353561
O 30.884900 46.498800 4.662840
N 30.390600 31.924000 39.679800
N 11.211000 30.139700 9.724220
O 3.103000 14.718900 6.034900
N 16.752600 14.604700 7.553140
O 0.610737 50.273700 11.528900
N 4.747020 46.354500 15.857800
N 38.158100 34.105700 34.212200
N 32.811800 45.413100 22.112900
O 10.126100 27.704300 1.757970
N 44.029500 27.525900 24.279800
O 34.457500 47.882000 49.690400
N 40.240100 17.881200 45.886700
N 24.941900 18.890100 10.139000
O 39.645000 5.995660 46.886200
N 6.746940 12.755700 19.357600
N 14.920000 24.914200 11.143100
N 41.722000 18.675300 43.638700
N 8.394590 24.629500 38.598000
N 10.923600 40.087400 28.413100
N 25.109700 33.525400 40.193700
O 27.002700 2.486130 30.654100
O 26.156200 0.797096 26.045400
N 40.251000 14.898900 35.492300
N 28.644000 30.872900 20.032300
N 40.571500 42.046000 31.311500
O 21.995200 30.011200 6.057660
N 20.016900 47.370400 27.307600
N 15.136000 32.451100 4.603680
N 44.551400 48.168700 45.499200
N 0.076093 5.309170 17.452800
N 11.549500 41.049900 35.462900
N 4.766290 22.063900 27.313200
O 22.871600 3.519850 18.423900
N 7.789800 4.378260 18.711300
O 36.134500 36.414300 42.542700
O 43.387100 40.072100 4.113390
O 19.191200 42.935900 34.734800
N 11.261700 37.654900 22.606800
O 50.975700 1.174460 27.880900
N 33.239800 45.425700 17.579600
N 23.234100 31.043100 11.131600
O 48.286800 31.085300 35.911600
N 6.968440 31.733700 50.954700
N 1.318080 6.663530 13.184100
N 22.988800 49.973100 46.271800
O 48.420800 2.420940 2.214740
N 11.866100 5.284640 16.687900
N 30.861200 13.786500 1.161440
N 21.184000 29.913300 36.036500
N 30.910800 14.700700 49.737200
O 49.315900 0.008044 31.492800
O 49.259800 45.729200 18.265600
O 4.015200 9.370850 19.313600
N 45.701000 41.920200 7.278150
N 46.518700 16.628700 26.010000
N 34.239000 5.593250 49.408700
N 9.031320 11.200200 28.894300
N 21.211800 37.564600 36.489500
N 16.211400 13.888700 43.945200
N 35.470700 20.942400 14.933800
O 49.278300 23.588300 34.799900
N 38.162900 32.284400 43.744800
N 29.449000 50.505800 32.208600
O 8.121840 8.594810 21.082800
N 33.378900 46.156400 8.864790
O 14.135500 36.399000 4.880350
O 9.606760 40.743600 49.388100
O 2.224910 17.557800 33.249700
N 5.293790 38.158300 13.559500
O 36.474400 47.033300 20.015800
O 4.788950 44.103300 44.762300
N 31.899400 30.924700 45.130000
N 8.141100 20.023500 6.416320
N 23.208800 12.005600 22.425100
N 22.874100 26.389200 12.358500
N 21.374900 4.983130 6.887400
N 40.099400 12.918600 19.588600
O 24.010900 9.589900 23.611700
N 37.006000 23.219000 15.490300
O 3.517160 20.679300 5.124960
N 16.326700 4.042820 31.003800
N 28.599500 2.671310 51.000800
N 11.338600 45.388300 13.029500
O 3.853010 48.026900 19.380400
N 36.338800 47.094400 12.356900
N 46.785800 7.718830 6.296300
N 38.049000 18.197100 12.295200
N 31.768000 37.460800 35.921200
O 32.699700 27.382700 46.308800
N 4.134730 36.503100 45.439700
N 3.654230 30.438300 35.533400
O 26.589200 0.379296 7.154230
O 50.262600 11.834900 19.388000
O 19.895000 1.917570 47.378200
N 14.956100 3.835230 45.602100
N 3.722210 29.861000 47.118300
O 4.186010 28.584900 5.513350
N 8.724110 40.069600 31.502500
N 36.515700 31.257900 20.709700
O 48.153200 37.833200 24.852600
N 13.935500 37.548400 19.518900
N 9.698020 16.049300 19.291000
O 45.367300 14.157100 25.773100
N 26.413600 44.799300 17.133900
N 50.691900 30.869600 12.791200
N 27.309400 1.620370 37.837300
N 13.720000 5.657570 38.853000
N 32.934500 26.502200 16.122400
N 38.290100 40.745600 15.206900
N 32.868800 43.070100 27.362700
O 35.103500 28.585100 45.531200
N 36.515200 22.247900 29.940700
O 11.357000 38.638600 48.878700
N 4.536400 22.794600 34.968200
N 14.726800 33.031100 19.895100
N 13.286900 33.764400 48.116600
N 0.987664 11.377500 22.776800
O 23.854400 13.022600 46.434000
O 12.359300 1.100120 7.112000
O 35.698200 48.739900 38.324500
O 3.418820 47.009800 41.146200
O 22.748100 49.683400 7.410080
N 18.505300 31.820900 31.463200
O 26.075200 3.443650 43.339000
O 34.948900 26.138800 50.466400
O 20.782600 48.359800 3.139410
N 35.524400 25.444600 4.152990
N 45.643100 19.331000 29.766800
N 10.717100 38.399900 30.652100
N 35.509300 49.866600 32.122500
O 2.092970 7.463290 10.325500
O 7.071260 13.086100 38.981400
O 32.834200 44.468400 13.058700
N 9.812120 31.280000 23.499100
N 14.083500 45.630500 13.239000
O 0.074976 44.233200 19.397700
N 43.793900 18.468200 19.630300
N 30.608700 7.290930 29.544700
N 38.063100 16.570300 49.345200
N 9.553650 36.207900 18.667700
O 39.666700 5.592310 31.462200
O 1.223220 12.823500 5.183620
N 21.149300 27.737500 37.965500
N 5.323700 40.283700 41.252400
O 27.639100 20.565100 0.254917
O 18.414400 22.258400 12.181500
N 33.450600 28.734200 29.465400
N 37.551800 39.788300 44.734400
O 14.721200 23.412900 50.317300
N 38.512200 11.402800 10.972500
N 17.352900 37.611300 12.557900
N 7.926780 24.655200 7.464670
O 25.285400 1.274020 49.171200
N 30.307600 42.385600 44.184000
O 49.352200 40.184300 24.010100
N 3.852640 49.497000 21.755100
N 14.356000 19.442000 40.619000
N 6.574040 23.871100 20.652000
N 14.484500 35.434700 21.207600
O 38.695600 0.521593 29.941900
N 34.834300 29.643300 6.681890
N 39.050000 9.704330 26.084500
N 33.831800 22.151400 37.006800
N 30.141300 47.018300 44.558900
N 17.682300 7.895090 13.527100
O 20.671000 24.154700 1.687790
N 21.854300 18.310200 6.755670
N 28.290100 21.588300 38.331900
N 13.335800 49.851100 33.091300
O 45.842700 50.495200 42.234500
N 45.140700 23.382000 15.859400
N 23.283600 10.599500 6.765500
N 24.641300 19.342100 36.486600
O 49.299100 45.475400 15.427100
N 22.243400 47.645100 28.943700
N 13.244900 25.774300 27.674500
O 34.026500 38.052700 43.590900
N 41.039200 43.059700 37.031000
O 49.373800 23.721700 0.093306
O 19.036700 50.774700 34.903800
N 11.212000 25.760600 44.318100
N 7.937070 0.054214 26.327700
N 5.404600 11.654200 12.327700
N 25.933100 28.419200 9.712350
O 1.691950 25.742500 46.557000
N 40.772900 12.191500 16.963200
O 48.102600 21.899600 22.096800
O 21.336100 35.847200 48.231600
N 10.713700 18.284700 25.559800
O 37.368500 1.208740 35.955500
N 29.906100 35.445900 13.583000
O 44.973700 30.927900 0.529178
O 5.660870 20.973800 48.255400
N 36.533600 1.147130 31.586000
N 20.028800 4.340780 21.314300
N 26.578100 24.883100 30.548700
N 6.868640 26.851000 14.701200
N 23.547900 40.406300 12.100900
N 9.883660 36.317400 41.080100
O 15.771200 39.610800 49.466500
N 14.714500 10.449300 7.566090
O 34.091800 35.329600 44.947100
O 20.354300 3.944900 37.819300
O 5.158060 51.089700 0.303529
O 6.804170 26.833100 32.773300
N 6.718710 49.717200 5.309250
O 27.915400 2.039530 2.397670
N 27.385600 25.950200 19.795500
O 49.161900 9.578970 49.992800
O 50.372700 15.500400 39.054700
N 41.745800 14.488200 7.268460
N 9.704340 17.551300 33.310000
N 4.470220 4.981070 37.870800
N 10.192500 42.083400 30.279100
N 18.810400 45.898300 44.715500
N 45.310600 39.356000 13.888600
N 29.969700 42.094400 4.770770
N 41.390400 25.272000 45.270900
N 44.629500 12.799000 45.288900
O 44.118800 2.868810 37.337600
O 7.842530 15.343900 36.287500
N 43.464500 45.774100 23.330800
O 26.820800 45.062700 26.146400
O 15.628500 1.377110 30.738400
N 41.755000 36.942600 35.504800
N 7.683460 21.335500 20.408800
N 11.552400 23.690900 36.116400
O 38.208800 3.669130 5.995680
N 30.981400 29.611500 36.056200